3
    Energy:       0.0000000
  O       -1.07285        4.63211        0.00000
  H       -0.26949        4.06018        0.00000
  H       -0.74063        5.54349        0.00000
